HEADER,  PAOr.mol2  read w/ mol2SYBYL2lmp > atom_typing v1.10 / 10 May 2024 w/PCFF-IFF atom-types > all2lmp: v1.20 / 4 October 2024  Class: 2

92 atoms
91 bonds
180 angles
261 dihedrals
120 impropers

6 atom types
9 bond types
19 angle types
28 dihedral types
17 improper types

-12.775755435 12.118244565 xlo xhi
-3.805427174 9.369372826 ylo yhi
-3.677951087 4.040248913 zlo zhi

Masses

1   12.01115000  #  c    
2   12.01115000  #  c1   
3   12.01115000  #  c2   
4   12.01115000  #  c3   
5    1.00797000  #  hc   
6   15.99940000  #  o_1  

Pair Coeffs  # lj/class2/coul/long

1         0.05400000      4.01000000 #  c    
2         0.05400000      4.01000000 #  c1   
3         0.05400000      4.01000000 #  c2   
4         0.05400000      4.01000000 #  c3   
5         0.02000000      2.99500000 #  hc   
6         0.26700000      3.30000000 #  o_1  

Bond Coeffs  # class2

1         1.53000000    299.67000000   -501.77000000    679.81000000 #  c           c2   
2         1.38000000    318.94840000      0.00000000      0.00000000 #  c          o_1   
3         1.53000000    299.67000000   -501.77000000    679.81000000 #  c1          c2   
4         1.53000000    299.67000000   -501.77000000    679.81000000 #  c1          c3   
5         1.10100000    345.00000000   -691.89000000    844.60000000 #  c1          hc   
6         1.53000000    299.67000000   -501.77000000    679.81000000 #  c2          c2   
7         1.53000000    299.67000000   -501.77000000    679.81000000 #  c2          c3   
8         1.10100000    345.00000000   -691.89000000    844.60000000 #  c2          hc   
9         1.10100000    345.00000000   -691.89000000    844.60000000 #  c3          hc   

Angle Coeffs  # class2

1       112.67000000     39.51600000     -7.44300000     -9.55830000 #  c          c2         c1   
2       112.67000000     39.51600000     -7.44300000     -9.55830000 #  c          c2         c2   
3       110.77000000     41.45300000    -10.60400000      5.12900000 #  c          c2         hc   
4       112.67000000     39.51600000     -7.44300000     -9.55830000 #  c1         c2         c2   
5       110.77000000     41.45300000    -10.60400000      5.12900000 #  c1         c2         hc   
6       110.77000000     41.45300000    -10.60400000      5.12900000 #  c1         c3         hc   
7       112.67000000     39.51600000     -7.44300000     -9.55830000 #  c2         c          c2   
8       109.50000000     46.00000000      0.00000000      0.00000000 #  o_1        c          c2   
9       112.67000000     39.51600000     -7.44300000     -9.55830000 #  c2         c1         c2   
10      112.67000000     39.51600000     -7.44300000     -9.55830000 #  c2         c1         c3   
11      110.77000000     41.45300000    -10.60400000      5.12900000 #  c2         c1         hc   
12      112.67000000     39.51600000     -7.44300000     -9.55830000 #  c2         c2         c2   
13      112.67000000     39.51600000     -7.44300000     -9.55830000 #  c2         c2         c3   
14      110.77000000     41.45300000    -10.60400000      5.12900000 #  c2         c2         hc   
15      110.77000000     41.45300000    -10.60400000      5.12900000 #  c2         c3         hc   
16      110.77000000     41.45300000    -10.60400000      5.12900000 #  c3         c1         hc   
17      110.77000000     41.45300000    -10.60400000      5.12900000 #  c3         c2         hc   
18      107.66000000     39.64100000    -12.92100000     -2.43180000 #  hc         c2         hc   
19      107.66000000     39.64100000    -12.92100000     -2.43180000 #  hc         c3         hc   

Dihedral Coeffs  # class2

1         0.00000000      0.00000000      0.05140000      0.00000000     -0.14300000      0.00000000 #  c2         c         c2         c2   
2         0.00000000      0.00000000      0.03160000      0.00000000     -0.16810000      0.00000000 #  c2         c         c2         hc   
3         0.00000000      0.00000000      0.05140000      0.00000000     -0.14300000      0.00000000 #  c2         c1        c2         c2   
4         0.00000000      0.00000000      0.03160000      0.00000000     -0.16810000      0.00000000 #  c3         c1        c2         hc   
5        -0.14320000      0.00000000      0.06170000      0.00000000     -0.10830000      0.00000000 #  hc         c1        c2         hc   
6         0.00000000      0.00000000      0.03160000      0.00000000     -0.16810000      0.00000000 #  c2         c1        c2         hc   
7        -0.14320000      0.00000000      0.06170000      0.00000000     -0.10830000      0.00000000 #  hc         c1        c3         hc   
8         0.00000000      0.00000000      0.03160000      0.00000000     -0.16810000      0.00000000 #  c2         c1        c3         hc   
9         0.00000000      0.00000000      0.05140000      0.00000000     -0.14300000      0.00000000 #  c1         c2        c          c2   
10        0.00000000      0.00000000      0.00000000      0.00000000      0.15800000      0.00000000 #  c2         c2        c         o_1   
11        0.00000000      0.00000000      0.00000000      0.00000000      0.15800000      0.00000000 #  hc         c2        c         o_1   
12        0.00000000      0.00000000      0.00000000      0.00000000      0.15800000      0.00000000 #  c1         c2        c         o_1   
13        0.00000000      0.00000000      0.05140000      0.00000000     -0.14300000      0.00000000 #  c          c2        c1         c2   
14        0.00000000      0.00000000      0.05140000      0.00000000     -0.14300000      0.00000000 #  c2         c2        c1         c3   
15        0.00000000      0.00000000      0.05140000      0.00000000     -0.14300000      0.00000000 #  c          c2        c1         c3   
16        0.00000000      0.00000000      0.03160000      0.00000000     -0.16810000      0.00000000 #  c          c2        c1         hc   
17        0.00000000      0.00000000      0.03160000      0.00000000     -0.16810000      0.00000000 #  c2         c2        c1         hc   
18        0.00000000      0.00000000      0.05140000      0.00000000     -0.14300000      0.00000000 #  c1         c2        c2         c2   
19        0.00000000      0.00000000      0.05140000      0.00000000     -0.14300000      0.00000000 #  c2         c2        c2         c2   
20        0.00000000      0.00000000      0.05140000      0.00000000     -0.14300000      0.00000000 #  c          c2        c2         c2   
21        0.00000000      0.00000000      0.05140000      0.00000000     -0.14300000      0.00000000 #  c2         c2        c2         c3   
22        0.00000000      0.00000000      0.03160000      0.00000000     -0.16810000      0.00000000 #  c1         c2        c2         hc   
23        0.00000000      0.00000000      0.03160000      0.00000000     -0.16810000      0.00000000 #  c3         c2        c2         hc   
24        0.00000000      0.00000000      0.03160000      0.00000000     -0.16810000      0.00000000 #  c2         c2        c2         hc   
25        0.00000000      0.00000000      0.03160000      0.00000000     -0.16810000      0.00000000 #  c          c2        c2         hc   
26       -0.14320000      0.00000000      0.06170000      0.00000000     -0.10830000      0.00000000 #  hc         c2        c2         hc   
27        0.00000000      0.00000000      0.03160000      0.00000000     -0.16810000      0.00000000 #  c2         c2        c3         hc   
28       -0.14320000      0.00000000      0.06170000      0.00000000     -0.10830000      0.00000000 #  hc         c2        c3         hc   

Improper Coeffs  # class2

1         0.00000000      0.00000000 #  c          c2        c1        hc      nb!=3   
2         0.00000000      0.00000000 #  c          c2        c2        hc      nb!=3   
3         0.00000000      0.00000000 #  c          c2        hc        hc      nb!=3   
4         0.00000000      0.00000000 #  c1         c2        c2        hc      nb!=3   
5         0.00000000      0.00000000 #  c1         c2        hc        hc      nb!=3   
6         0.00000000      0.00000000 #  c1         c3        hc        hc      nb!=3   
7         0.00000000      0.00000000 #  c2         c         c2        c2      nb!=3   
8         0.00000000      0.00000000 #  c2         c         c2       o_1      nb!=3   
9         0.00000000      0.00000000 #  c2         c1        c2        c3      nb!=3   
10        0.00000000      0.00000000 #  c2         c1        c2        hc      nb!=3   
11        0.00000000      0.00000000 #  c2         c1        c3        hc      nb!=3   
12        0.00000000      0.00000000 #  c2         c2        c2        hc      nb!=3   
13        0.00000000      0.00000000 #  c2         c2        c3        hc      nb!=3   
14        0.00000000      0.00000000 #  c2         c2        hc        hc      nb!=3   
15        0.00000000      0.00000000 #  c2         c3        hc        hc      nb!=3   
16        0.00000000      0.00000000 #  c3         c2        hc        hc      nb!=3   
17        0.00000000      0.00000000 #  hc         c3        hc        hc      nb!=3   

BondBond Coeffs  # class2

1         0.00000000      1.53000000      1.53000000 #  c          c2         c1   
2         0.00000000      1.53000000      1.53000000 #  c          c2         c2   
3         3.38720000      1.53000000      1.10100000 #  c          c2         hc   
4         0.00000000      1.53000000      1.53000000 #  c1         c2         c2   
5         3.38720000      1.53000000      1.10100000 #  c1         c2         hc   
6         3.38720000      1.53000000      1.10100000 #  c1         c3         hc   
7         0.00000000      1.53000000      1.53000000 #  c2         c          c2   
8         0.00000000      1.38000000      1.53000000 #  o_1        c          c2   
9         0.00000000      1.53000000      1.53000000 #  c2         c1         c2   
10        0.00000000      1.53000000      1.53000000 #  c2         c1         c3   
11        3.38720000      1.53000000      1.10100000 #  c2         c1         hc   
12        0.00000000      1.53000000      1.53000000 #  c2         c2         c2   
13        0.00000000      1.53000000      1.53000000 #  c2         c2         c3   
14        3.38720000      1.53000000      1.10100000 #  c2         c2         hc   
15        3.38720000      1.53000000      1.10100000 #  c2         c3         hc   
16        3.38720000      1.53000000      1.10100000 #  c3         c1         hc   
17        3.38720000      1.53000000      1.10100000 #  c3         c2         hc   
18        5.33160000      1.10100000      1.10100000 #  hc         c2         hc   
19        5.33160000      1.10100000      1.10100000 #  hc         c3         hc   

BondAngle Coeffs  # class2

1         8.01600000      8.01600000      1.53000000      1.53000000 #  c          c2         c1   
2         8.01600000      8.01600000      1.53000000      1.53000000 #  c          c2         c2   
3        20.75400000     11.42100000      1.53000000      1.10100000 #  c          c2         hc   
4         8.01600000      8.01600000      1.53000000      1.53000000 #  c1         c2         c2   
5        20.75400000     11.42100000      1.53000000      1.10100000 #  c1         c2         hc   
6        20.75400000     11.42100000      1.53000000      1.10100000 #  c1         c3         hc   
7         8.01600000      8.01600000      1.53000000      1.53000000 #  c2         c          c2   
8         0.00000000      0.00000000      1.38000000      1.53000000 #  o_1        c          c2   
9         8.01600000      8.01600000      1.53000000      1.53000000 #  c2         c1         c2   
10        8.01600000      8.01600000      1.53000000      1.53000000 #  c2         c1         c3   
11       20.75400000     11.42100000      1.53000000      1.10100000 #  c2         c1         hc   
12        8.01600000      8.01600000      1.53000000      1.53000000 #  c2         c2         c2   
13        8.01600000      8.01600000      1.53000000      1.53000000 #  c2         c2         c3   
14       20.75400000     11.42100000      1.53000000      1.10100000 #  c2         c2         hc   
15       20.75400000     11.42100000      1.53000000      1.10100000 #  c2         c3         hc   
16       20.75400000     11.42100000      1.53000000      1.10100000 #  c3         c1         hc   
17       20.75400000     11.42100000      1.53000000      1.10100000 #  c3         c2         hc   
18       18.10300000     18.10300000      1.10100000      1.10100000 #  hc         c2         hc   
19       18.10300000     18.10300000      1.10100000      1.10100000 #  hc         c3         hc   

AngleAngleTorsion Coeffs  # class2

1       -22.04500000    112.67000000    112.67000000 #  c2         c         c2         c2   
2       -16.16400000    112.67000000    110.77000000 #  c2         c         c2         hc   
3       -22.04500000    112.67000000    112.67000000 #  c2         c1        c2         c2   
4       -16.16400000    112.67000000    110.77000000 #  c3         c1        c2         hc   
5       -12.56400000    110.77000000    110.77000000 #  hc         c1        c2         hc   
6       -16.16400000    112.67000000    110.77000000 #  c2         c1        c2         hc   
7       -12.56400000    110.77000000    110.77000000 #  hc         c1        c3         hc   
8       -16.16400000    112.67000000    110.77000000 #  c2         c1        c3         hc   
9       -22.04500000    112.67000000    112.67000000 #  c1         c2        c          c2   
10        0.00000000    112.67000000    109.50000000 #  c2         c2        c         o_1   
11        0.00000000    110.77000000    109.50000000 #  hc         c2        c         o_1   
12        0.00000000    112.67000000    109.50000000 #  c1         c2        c         o_1   
13      -22.04500000    112.67000000    112.67000000 #  c          c2        c1         c2   
14      -22.04500000    112.67000000    112.67000000 #  c2         c2        c1         c3   
15      -22.04500000    112.67000000    112.67000000 #  c          c2        c1         c3   
16      -16.16400000    112.67000000    110.77000000 #  c          c2        c1         hc   
17      -16.16400000    112.67000000    110.77000000 #  c2         c2        c1         hc   
18      -22.04500000    112.67000000    112.67000000 #  c1         c2        c2         c2   
19      -22.04500000    112.67000000    112.67000000 #  c2         c2        c2         c2   
20      -22.04500000    112.67000000    112.67000000 #  c          c2        c2         c2   
21      -22.04500000    112.67000000    112.67000000 #  c2         c2        c2         c3   
22      -16.16400000    112.67000000    110.77000000 #  c1         c2        c2         hc   
23      -16.16400000    112.67000000    110.77000000 #  c3         c2        c2         hc   
24      -16.16400000    112.67000000    110.77000000 #  c2         c2        c2         hc   
25      -16.16400000    112.67000000    110.77000000 #  c          c2        c2         hc   
26      -12.56400000    110.77000000    110.77000000 #  hc         c2        c2         hc   
27      -16.16400000    112.67000000    110.77000000 #  c2         c2        c3         hc   
28      -12.56400000    110.77000000    110.77000000 #  hc         c2        c3         hc   

EndBondTorsion Coeffs  # class2

1        -0.07320000      0.00000000      0.00000000     -0.07320000      0.00000000      0.00000000      1.53000000      1.53000000 #  c2         c         c2         c2   
2         0.24860000      0.24220000     -0.09250000      0.08140000      0.05910000      0.22190000      1.53000000      1.10100000 #  c2         c         c2         hc   
3        -0.07320000      0.00000000      0.00000000     -0.07320000      0.00000000      0.00000000      1.53000000      1.53000000 #  c2         c1        c2         c2   
4         0.24860000      0.24220000     -0.09250000      0.08140000      0.05910000      0.22190000      1.53000000      1.10100000 #  c3         c1        c2         hc   
5         0.21300000      0.31200000      0.07770000      0.21300000      0.31200000      0.07770000      1.10100000      1.10100000 #  hc         c1        c2         hc   
6         0.24860000      0.24220000     -0.09250000      0.08140000      0.05910000      0.22190000      1.53000000      1.10100000 #  c2         c1        c2         hc   
7         0.21300000      0.31200000      0.07770000      0.21300000      0.31200000      0.07770000      1.10100000      1.10100000 #  hc         c1        c3         hc   
8         0.24860000      0.24220000     -0.09250000      0.08140000      0.05910000      0.22190000      1.53000000      1.10100000 #  c2         c1        c3         hc   
9        -0.07320000      0.00000000      0.00000000     -0.07320000      0.00000000      0.00000000      1.53000000      1.53000000 #  c1         c2        c          c2   
10        0.00000000      0.00000000      0.00000000      0.00000000      0.00000000      0.00000000      1.53000000      1.38000000 #  c2         c2        c         o_1   
11        0.00000000      0.00000000      0.00000000      0.00000000      0.00000000      0.00000000      1.10100000      1.38000000 #  hc         c2        c         o_1   
12        0.00000000      0.00000000      0.00000000      0.00000000      0.00000000      0.00000000      1.53000000      1.38000000 #  c1         c2        c         o_1   
13       -0.07320000      0.00000000      0.00000000     -0.07320000      0.00000000      0.00000000      1.53000000      1.53000000 #  c          c2        c1         c2   
14       -0.07320000      0.00000000      0.00000000     -0.07320000      0.00000000      0.00000000      1.53000000      1.53000000 #  c2         c2        c1         c3   
15       -0.07320000      0.00000000      0.00000000     -0.07320000      0.00000000      0.00000000      1.53000000      1.53000000 #  c          c2        c1         c3   
16        0.24860000      0.24220000     -0.09250000      0.08140000      0.05910000      0.22190000      1.53000000      1.10100000 #  c          c2        c1         hc   
17        0.24860000      0.24220000     -0.09250000      0.08140000      0.05910000      0.22190000      1.53000000      1.10100000 #  c2         c2        c1         hc   
18       -0.07320000      0.00000000      0.00000000     -0.07320000      0.00000000      0.00000000      1.53000000      1.53000000 #  c1         c2        c2         c2   
19       -0.07320000      0.00000000      0.00000000     -0.07320000      0.00000000      0.00000000      1.53000000      1.53000000 #  c2         c2        c2         c2   
20       -0.07320000      0.00000000      0.00000000     -0.07320000      0.00000000      0.00000000      1.53000000      1.53000000 #  c          c2        c2         c2   
21       -0.07320000      0.00000000      0.00000000     -0.07320000      0.00000000      0.00000000      1.53000000      1.53000000 #  c2         c2        c2         c3   
22        0.24860000      0.24220000     -0.09250000      0.08140000      0.05910000      0.22190000      1.53000000      1.10100000 #  c1         c2        c2         hc   
23        0.24860000      0.24220000     -0.09250000      0.08140000      0.05910000      0.22190000      1.53000000      1.10100000 #  c3         c2        c2         hc   
24        0.24860000      0.24220000     -0.09250000      0.08140000      0.05910000      0.22190000      1.53000000      1.10100000 #  c2         c2        c2         hc   
25        0.24860000      0.24220000     -0.09250000      0.08140000      0.05910000      0.22190000      1.53000000      1.10100000 #  c          c2        c2         hc   
26        0.21300000      0.31200000      0.07770000      0.21300000      0.31200000      0.07770000      1.10100000      1.10100000 #  hc         c2        c2         hc   
27        0.24860000      0.24220000     -0.09250000      0.08140000      0.05910000      0.22190000      1.53000000      1.10100000 #  c2         c2        c3         hc   
28        0.21300000      0.31200000      0.07770000      0.21300000      0.31200000      0.07770000      1.10100000      1.10100000 #  hc         c2        c3         hc   

MiddleBondTorsion Coeffs  # class2

1       -17.78700000     -7.18770000      0.00000000      1.53000000 #  c2         c         c2         c2   
2       -14.87900000     -3.65810000     -0.31380000      1.53000000 #  c2         c         c2         hc   
3       -17.78700000     -7.18770000      0.00000000      1.53000000 #  c2         c1        c2         c2   
4       -14.87900000     -3.65810000     -0.31380000      1.53000000 #  c3         c1        c2         hc   
5       -14.26100000     -0.53220000     -0.48640000      1.53000000 #  hc         c1        c2         hc   
6       -14.87900000     -3.65810000     -0.31380000      1.53000000 #  c2         c1        c2         hc   
7       -14.26100000     -0.53220000     -0.48640000      1.53000000 #  hc         c1        c3         hc   
8       -14.87900000     -3.65810000     -0.31380000      1.53000000 #  c2         c1        c3         hc   
9       -17.78700000     -7.18770000      0.00000000      1.53000000 #  c1         c2        c          c2   
10        0.00000000      0.00000000      0.00000000      1.53000000 #  c2         c2        c         o_1   
11        0.00000000      0.00000000      0.00000000      1.53000000 #  hc         c2        c         o_1   
12        0.00000000      0.00000000      0.00000000      1.53000000 #  c1         c2        c         o_1   
13      -17.78700000     -7.18770000      0.00000000      1.53000000 #  c          c2        c1         c2   
14      -17.78700000     -7.18770000      0.00000000      1.53000000 #  c2         c2        c1         c3   
15      -17.78700000     -7.18770000      0.00000000      1.53000000 #  c          c2        c1         c3   
16      -14.87900000     -3.65810000     -0.31380000      1.53000000 #  c          c2        c1         hc   
17      -14.87900000     -3.65810000     -0.31380000      1.53000000 #  c2         c2        c1         hc   
18      -17.78700000     -7.18770000      0.00000000      1.53000000 #  c1         c2        c2         c2   
19      -17.78700000     -7.18770000      0.00000000      1.53000000 #  c2         c2        c2         c2   
20      -17.78700000     -7.18770000      0.00000000      1.53000000 #  c          c2        c2         c2   
21      -17.78700000     -7.18770000      0.00000000      1.53000000 #  c2         c2        c2         c3   
22      -14.87900000     -3.65810000     -0.31380000      1.53000000 #  c1         c2        c2         hc   
23      -14.87900000     -3.65810000     -0.31380000      1.53000000 #  c3         c2        c2         hc   
24      -14.87900000     -3.65810000     -0.31380000      1.53000000 #  c2         c2        c2         hc   
25      -14.87900000     -3.65810000     -0.31380000      1.53000000 #  c          c2        c2         hc   
26      -14.26100000     -0.53220000     -0.48640000      1.53000000 #  hc         c2        c2         hc   
27      -14.87900000     -3.65810000     -0.31380000      1.53000000 #  c2         c2        c3         hc   
28      -14.26100000     -0.53220000     -0.48640000      1.53000000 #  hc         c2        c3         hc   

BondBond13 Coeffs  # class2

1         0.00000000      1.53000000      1.53000000 #  c2         c         c2         c2   
2         0.00000000      1.53000000      1.10100000 #  c2         c         c2         hc   
3         0.00000000      1.53000000      1.53000000 #  c2         c1        c2         c2   
4         0.00000000      1.53000000      1.10100000 #  c3         c1        c2         hc   
5         0.00000000      1.10100000      1.10100000 #  hc         c1        c2         hc   
6         0.00000000      1.53000000      1.10100000 #  c2         c1        c2         hc   
7         0.00000000      1.10100000      1.10100000 #  hc         c1        c3         hc   
8         0.00000000      1.53000000      1.10100000 #  c2         c1        c3         hc   
9         0.00000000      1.53000000      1.53000000 #  c1         c2        c          c2   
10        0.00000000      1.53000000      1.38000000 #  c2         c2        c         o_1   
11        0.00000000      1.10100000      1.38000000 #  hc         c2        c         o_1   
12        0.00000000      1.53000000      1.38000000 #  c1         c2        c         o_1   
13        0.00000000      1.53000000      1.53000000 #  c          c2        c1         c2   
14        0.00000000      1.53000000      1.53000000 #  c2         c2        c1         c3   
15        0.00000000      1.53000000      1.53000000 #  c          c2        c1         c3   
16        0.00000000      1.53000000      1.10100000 #  c          c2        c1         hc   
17        0.00000000      1.53000000      1.10100000 #  c2         c2        c1         hc   
18        0.00000000      1.53000000      1.53000000 #  c1         c2        c2         c2   
19        0.00000000      1.53000000      1.53000000 #  c2         c2        c2         c2   
20        0.00000000      1.53000000      1.53000000 #  c          c2        c2         c2   
21        0.00000000      1.53000000      1.53000000 #  c2         c2        c2         c3   
22        0.00000000      1.53000000      1.10100000 #  c1         c2        c2         hc   
23        0.00000000      1.53000000      1.10100000 #  c3         c2        c2         hc   
24        0.00000000      1.53000000      1.10100000 #  c2         c2        c2         hc   
25        0.00000000      1.53000000      1.10100000 #  c          c2        c2         hc   
26        0.00000000      1.10100000      1.10100000 #  hc         c2        c2         hc   
27        0.00000000      1.53000000      1.10100000 #  c2         c2        c3         hc   
28        0.00000000      1.10100000      1.10100000 #  hc         c2        c3         hc   

AngleTorsion Coeffs  # class2

1         0.38860000     -0.31390000      0.13890000      0.38860000     -0.31390000      0.13890000    112.67000000    112.67000000 #  c2         c         c2         c2   
2        -0.24540000      0.00000000     -0.11360000      0.31130000      0.45160000     -0.19880000    112.67000000    110.77000000 #  c2         c         c2         hc   
3         0.38860000     -0.31390000      0.13890000      0.38860000     -0.31390000      0.13890000    112.67000000    112.67000000 #  c2         c1        c2         c2   
4        -0.24540000      0.00000000     -0.11360000      0.31130000      0.45160000     -0.19880000    112.67000000    110.77000000 #  c3         c1        c2         hc   
5        -0.80850000      0.55690000     -0.24660000     -0.80850000      0.55690000     -0.24660000    110.77000000    110.77000000 #  hc         c1        c2         hc   
6        -0.24540000      0.00000000     -0.11360000      0.31130000      0.45160000     -0.19880000    112.67000000    110.77000000 #  c2         c1        c2         hc   
7        -0.80850000      0.55690000     -0.24660000     -0.80850000      0.55690000     -0.24660000    110.77000000    110.77000000 #  hc         c1        c3         hc   
8        -0.24540000      0.00000000     -0.11360000      0.31130000      0.45160000     -0.19880000    112.67000000    110.77000000 #  c2         c1        c3         hc   
9         0.38860000     -0.31390000      0.13890000      0.38860000     -0.31390000      0.13890000    112.67000000    112.67000000 #  c1         c2        c          c2   
10        0.00000000      0.00000000      0.00000000      0.00000000      0.00000000      0.00000000    112.67000000    109.50000000 #  c2         c2        c         o_1   
11        0.00000000      0.00000000      0.00000000      0.00000000      0.00000000      0.00000000    110.77000000    109.50000000 #  hc         c2        c         o_1   
12        0.00000000      0.00000000      0.00000000      0.00000000      0.00000000      0.00000000    112.67000000    109.50000000 #  c1         c2        c         o_1   
13        0.38860000     -0.31390000      0.13890000      0.38860000     -0.31390000      0.13890000    112.67000000    112.67000000 #  c          c2        c1         c2   
14        0.38860000     -0.31390000      0.13890000      0.38860000     -0.31390000      0.13890000    112.67000000    112.67000000 #  c2         c2        c1         c3   
15        0.38860000     -0.31390000      0.13890000      0.38860000     -0.31390000      0.13890000    112.67000000    112.67000000 #  c          c2        c1         c3   
16       -0.24540000      0.00000000     -0.11360000      0.31130000      0.45160000     -0.19880000    112.67000000    110.77000000 #  c          c2        c1         hc   
17       -0.24540000      0.00000000     -0.11360000      0.31130000      0.45160000     -0.19880000    112.67000000    110.77000000 #  c2         c2        c1         hc   
18        0.38860000     -0.31390000      0.13890000      0.38860000     -0.31390000      0.13890000    112.67000000    112.67000000 #  c1         c2        c2         c2   
19        0.38860000     -0.31390000      0.13890000      0.38860000     -0.31390000      0.13890000    112.67000000    112.67000000 #  c2         c2        c2         c2   
20        0.38860000     -0.31390000      0.13890000      0.38860000     -0.31390000      0.13890000    112.67000000    112.67000000 #  c          c2        c2         c2   
21        0.38860000     -0.31390000      0.13890000      0.38860000     -0.31390000      0.13890000    112.67000000    112.67000000 #  c2         c2        c2         c3   
22       -0.24540000      0.00000000     -0.11360000      0.31130000      0.45160000     -0.19880000    112.67000000    110.77000000 #  c1         c2        c2         hc   